41
total_Gibbs_free_energy -2164.654881
Pd 0.2855723541 0.2536569912 1.1557363455
Cl 1.9049530885 1.9687296398 1.7188074648
P 0.7485154622 0.4301330208 -1.3135371106
C -0.5730755245 4.5828629617 -2.9385771975
C -1.2023342814 4.0034319315 -1.8354137718
C -0.7749747239 2.7653533824 -1.3544150874
C 0.2786753871 2.0825281406 -1.9812936810
C 0.9106695538 2.6745643741 -3.0844749075
C 0.4869032664 3.9172887431 -3.5575872497
H -0.8997990283 5.5516810953 -3.3078256126
H -2.0195681704 4.5203906864 -1.3385984581
H -1.2550076885 2.3299358314 -0.4818796957
H 1.7394644322 2.1699425760 -3.5719337222
H 0.9890599211 4.3671948495 -4.4105361735
C 5.1402384317 -0.2604533987 -2.7178547892
C 4.8676721661 0.2306009647 -1.4404406435
C 3.5503405400 0.4327916077 -1.0239849475
C 2.4845170680 0.1469539059 -1.8907835623
C 2.7660942105 -0.3481740697 -3.1758836127
C 4.0845905892 -0.5485469091 -3.5852159348
H 6.1673425471 -0.4205050086 -3.0363270228
H 5.6825638423 0.4571249370 -0.7574632125
H 3.3463586997 0.8224018452 -0.0308834375
H 1.9560177992 -0.5869932679 -3.8585077760
H 4.2849056289 -0.9336341903 -4.5822917151
C -1.5888816626 -2.6702214014 -3.8931373988
C -0.6485057379 -3.0783166684 -2.9421596948
C 0.0441626875 -2.1301156661 -2.1920252326
C -0.1809763661 -0.7558876378 -2.3859588729
C -1.1232556417 -0.3572098715 -3.3427597843
C -1.8236423301 -1.3098246614 -4.0888652950
H -2.1319505637 -3.4093568108 -4.4767203406
H -0.4558467045 -4.1367465231 -2.7844503109
H 0.7711796449 -2.4601113460 -1.4529619076
H -1.3122117929 0.6985324720 -3.5105185547
H -2.5505743469 -0.9833448533 -4.8288605988
C 0.0250402958 -0.0272568202 3.2263710409
C -1.4856530442 0.0710503685 3.4383703239
H -1.7165082831 1.0274647969 3.9183793966
C -2.2163404580 0.0145323360 2.1036753313
C 0.7212133524 -1.3140572807 3.4474251968