74
total_Gibbs_free_energy -2740.543442
Pd 14.6199774816 0.2824226801 -0.3107037244
P 14.5993674481 -2.2194357678 -0.8992965552
P 12.4221532002 0.9540727603 -0.9064695333
C 18.5840687177 -4.6311467253 -0.6441619404
C 18.4027373770 -3.6301288378 -1.6028702382
C 17.2151912609 -2.9022040320 -1.6409255631
C 16.1825191317 -3.1657476492 -0.7243634493
C 16.3731537761 -4.1675039589 0.2364272643
C 17.5671270414 -4.8942359798 0.2735143247
H 19.5062107995 -5.2056230223 -0.6204962646
H 19.1843576739 -3.4214685604 -2.3288952697
H 17.0839602721 -2.1406558366 -2.4059891639
H 15.5882060919 -4.3973123027 0.9500718590
H 17.6937847476 -5.6761845968 1.0178023122
C 11.7654827879 -4.5110621419 2.0033612998
C 12.4660294631 -3.3730008304 2.4068094098
C 13.2886604573 -2.6997375892 1.5019240108
C 13.4319177820 -3.1560598218 0.1805485016
C 12.7168953922 -4.2962521956 -0.2163718062
C 11.8923169688 -4.9663070701 0.6892359186
H 11.1234336772 -5.0359306701 2.7049947000
H 12.3700242005 -3.0043402803 3.4248266585
H 13.8235833489 -1.8102545058 1.8245781554
H 12.7850013196 -4.6595309224 -1.2357863498
H 11.3467301005 -5.8481145623 0.3635591109
C 13.8691539154 -3.1369599835 -5.4010392586
C 14.1307155217 -4.1862787333 -4.5163186554
C 14.3290175577 -3.9282357631 -3.1622904710
C 14.2394607591 -2.6152251935 -2.6636577589
C 13.9923428279 -1.5722588407 -3.5640753630
C 13.8092659560 -1.8293465423 -4.9242035725
H 13.7277019622 -3.3395268238 -6.4592723103
H 14.2003466928 -5.2060251942 -4.8855066579
H 14.5915579649 -4.7476238509 -2.5001135827
H 13.9536305388 -0.5509743938 -3.1992497975
H 13.6233453887 -1.0060521096 -5.6089319951
C 9.5994551741 -2.0107515393 -3.1140754591
C 10.0824189408 -0.8909403006 -3.7897606686
C 10.9444189535 0.0001669780 -3.1499196200
C 11.3322626488 -0.2225911655 -1.8202933204
C 10.8400813824 -1.3517448409 -1.1460031587
C 9.9806007144 -2.2385126987 -1.7906830830
H 8.9247878348 -2.7003538246 -3.6139661972
H 9.7835165422 -0.7016000490 -4.8170033034
H 11.2977154748 0.8731962327 -3.6878442227
H 11.1119368794 -1.5333506948 -0.1119653958
H 9.6060180783 -3.1053787354 -1.2538349767
C 12.3268247088 4.6331731081 -3.7492467064
C 13.3047864719 3.6467752332 -3.8861990828
C 13.3322995441 2.5642392764 -3.0063378918
C 12.3751632605 2.4470879030 -1.9845680791
C 11.3945605332 3.4421722327 -1.8575366108
C 11.3752802117 4.5284672292 -2.7337473492
H 12.3093375711 5.4814717006 -4.4277257370
H 14.0514595812 3.7229549519 -4.6720772831
H 14.1085206405 1.8092031882 -3.1124719355
H 10.6507313465 3.3809447775 -1.0696986889
H 10.6136458866 5.2950380914 -2.6195634776
C 9.8773621986 1.8352171007 2.8791363444
C 9.2534851777 1.6830255546 1.6389304101
C 10.0115738146 1.4139949991 0.5009282884
C 11.4116437443 1.3059788418 0.5893716711
C 12.0260318534 1.4540478854 1.8398733946
C 11.2630515401 1.7168081375 2.9779526693
H 9.2826946612 2.0396289881 3.7653807321
H 8.1729815795 1.7640082147 1.5575783497
H 9.5098776704 1.2693130134 -0.4511978806
H 13.1040778065 1.3714717286 1.9212952467
H 11.7548974063 1.8323266811 3.9398661690
C 15.2991379072 2.3653729418 -0.0932348389
C 16.7669075836 1.9376559001 -0.1037207351
C 17.0443828162 0.6283840955 0.6462853742
H 17.1011684538 1.8112115378 -1.1396680503
C 14.8835329114 3.2817921664 0.9964155336