74
total_Gibbs_free_energy -2740.543039
C -1.9720834609 0.3912661529 0.8275424992
C -0.5898330028 0.9879861053 1.1033724871
H -0.7313521886 1.7554655523 1.8815666885
C 0.2893761325 -0.1140981415 1.7062033458
C 0.0574839045 1.6815658449 -0.0933602855
Pd -1.5781562331 -1.2968781784 -0.3689476106
P -0.5930845769 -3.0359187780 -1.9597831605
P -3.8452541489 -1.6937279812 -0.0444867773
C 3.9878427926 -2.4617879900 -2.5939617065
C 3.0866734720 -1.4261839455 -2.8527837095
C 1.7210851489 -1.6152187024 -2.6458598302
C 1.2330875561 -2.8466275302 -2.1763034709
C 2.1431317384 -3.8822355765 -1.9204340593
C 3.5117597514 -3.6873037228 -2.1293746804
H 5.0518265159 -2.3148553894 -2.7555828304
H 3.4454124993 -0.4673926045 -3.2148605453
H 1.0350678895 -0.7978485915 -2.8560219920
H 1.7903539576 -4.8450344602 -1.5661744880
H 4.2036237324 -4.5016265087 -1.9313832861
C -1.0127826805 -7.3843310581 -0.3836559735
C -0.7510299485 -6.3232881006 0.4868517394
C -0.6425343527 -5.0239898017 -0.0091216782
C -0.7846688063 -4.7718669724 -1.3853271661
C -1.0485351305 -5.8414117716 -2.2520703507
C -1.1622914028 -7.1402609081 -1.7501609790
H -1.1012347805 -8.3962787159 0.0025547840
H -0.6348115110 -6.5064513147 1.5520974222
H -0.4406238407 -4.2029689761 0.6755525725
H -1.1686511538 -5.6651353134 -3.3168599327
H -1.3666089073 -7.9625335051 -2.4310014948
C -2.1126057491 -2.9387281394 -6.3491786815
C -0.8501839010 -3.4660944795 -6.0664384868
C -0.3808901129 -3.4964653780 -4.7544109748
C -1.1767360399 -3.0038752888 -3.7053402990 
C -2.4392259773 -2.4696518199 -4.0010829085
C -2.9056075642 -2.4403348023 -5.3152133702
H -2.4737903474 -2.9125276947 -7.3735512704
H -0.2264339255 -3.8506173324 -6.8693934832
H 0.6081420014 -3.8966486721 -4.5481463989
H -3.0629114219 -2.0837818233 -3.2013472582
H -3.8879713202 -2.0263671573 -5.5300448940
C -5.8735786721 -4.9867894858 -2.6089727642
C -6.2687217133 -3.6588070967 -2.7684855953
C -5.6593110827 -2.6471676397 -2.0237741934
C -4.6436997084 -2.9621351622 -1.1080553716
C -4.2517730106 -4.3028188529 -0.9513901896
C -4.8645340571 -5.3061832016 -1.6980540427
H -6.3537226937 -5.7716738424 -3.1871322999
H -7.0616250496 -3.4048023719 -3.4665625526
H -5.9926371713 -1.6223199204 -2.1464197028
H -3.4758539792 -4.5681491907 -0.2403022389
H -4.5525198750 -6.3381456810 -1.5648709439
C -6.3220777178 2.1650424956 -0.7939462892
C -5.4015861148 1.7032920449 -1.7393266330
C -4.6646688727 0.5471648397 -1.4899589876
C -4.8503521224 -0.1762634304 -0.2972341563
C -5.7686120073 0.2974501191 0.6495791656
C -6.4981832026 1.4631085486 0.3982473330
H -6.8907899425 3.0710137235 -0.9839219492
H -5.2504655458 2.2490129891 -2.6670764201
H -3.9352255388 0.2095386059 -2.2236672225
H -5.9173160200 -0.2329780894 1.5846852736
H -7.2042296127 1.8213925368 1.1426554528
C -4.7649497835 -3.3308206580 4.1970427987
C -5.7621176442 -3.2998717302 3.2190793688
C -5.4789512220 -2.8096458840 1.9465540484
C -4.1922888287 -2.3285306026 1.6419336990
C -3.1941168363 -2.3752806870 2.6250119235
C -3.4824611230 -2.8739245559 3.8966367556
H -4.9875794425 -3.7186846959 5.1874023330
H -6.7603288368 -3.6649905164 3.4449824789
H -6.2565527568 -2.8108087548 1.1877273729
H -2.1882123793 -2.0354688957 2.3969049459
H -2.6996311003 -2.9077732563 4.6494720539 