41
total_Gibbs_free_energy -2164.644152
Pd -1.0713177172 -1.1835062321 -0.0180999096
P -1.6659607901 1.1852375807 0.7776011439
Cl -3.3780737956 -1.7734417601 0.0408815950
C 1.5435783464 4.5815921954 0.9194579215
C 1.4928075829 3.6036601534 1.9167342850
C 0.5206086318 2.6050676473 1.8722386728
C -0.4321617026 2.5699246300 0.8389757794
C -0.3710164397 3.5555092221 -0.1564271655
C 0.6093499953 4.5506815121 -0.1163555310
H 2.2987409414 5.3625311993 0.9549638044
H 2.2100483092 3.6197633065 2.7339904127
H 0.4918516067 1.8568872422 2.6599283419
H -1.0972713793 3.5562212537 -0.9634658195
H 0.6333419337 5.3095319151 -0.8946537191
C -3.2877435368 1.0902942516 5.1465675457
C -2.8507032539 2.3001736973 4.6038113399
C -2.3660622395 2.3474846053 3.2968722684
C -2.3125796721 1.1834513088 2.5098632388
C -2.7588325681 -0.0264652351 3.0644783791
C -3.2419459093 -0.0693619517 4.3735178116
H -3.6601493576 1.0531541104 6.1673178220
H -2.8825789906 3.2094071410 5.1991256814
H -2.0140017661 3.2930194589 2.8956083334
H -2.7478846478 -0.9299189475 2.4637683586
H -3.5832514213 -1.0155558467 4.7855920417
C -5.0019112548 2.9469382243 -1.9484849100
C -4.0371176355 2.0762856776 -2.4572199685
C -3.0598159380 1.5445360243 -1.6149954445
C -3.0230538121 1.8920894746 -0.2564321261
C -4.0005640105 2.7614816462 0.2478464522
C -4.9836213809 3.2830305498 -0.5934237669
H -5.7708030986 3.3523211566 -2.6010866726
H -4.0530053649 1.7960802267 -3.5073822079
H -2.3309410568 0.8411786165 -2.0087517208
H -4.0050585863 3.0239838537 1.3012560579
H -5.7398898742 3.9498408921 -0.1866407014
C -0.6859194243 -3.1329068682 -0.5512267354
C 0.4744131828 -2.9601147510 -1.5369472773
H 1.2775126070 -3.6810587442 -1.3213172979
C 1.0334678039 -1.5512336669 -1.2183645179
C 0.0965125916 -3.1366206925 -2.9982723466